! TOUCHSTONE file generated by CST DESIGN STUDIO
! Date and time: Thu Jan  7 22:09:11 2021
! Project name:  Project name: C:\Users\brianedw\Downloads\qhc_v3.cst
! Tree item: Tasks\SPara2\S-Parameters
! Header version: 2018
! Port assignment regex: !\s*Touchstone port\s*([0-9]+)\s*=\s*(CST MWS port|CST DS port)\s*([0-9]+)\s*\(\"(.*)\"\)(\s*mode\s*([0-9]+))?.*
! Touchstone port assignment:
! Touchstone port 1 = CST DS port 1 ("")
! Touchstone port 2 = CST DS port 2 ("")
! Touchstone port 3 = CST DS port 3 ("")
! Touchstone port 4 = CST DS port 4 ("")
# MHz S MA R 50
40                      0.234104         125.704         0.206262        -135.635          0.56529        -67.1484         0.642587          -152.3
                        0.206262        -135.635         0.234104         125.704         0.642587          -152.3          0.56529        -67.1484
                         0.56529        -67.1484         0.642587          -152.3         0.234104         125.704         0.206262        -135.635
                        0.642587          -152.3          0.56529        -67.1484         0.206262        -135.635         0.234104         125.704
40.01                   0.233561         125.681         0.205918        -135.679         0.565553        -67.1945          0.64264         -152.36
                        0.205918        -135.679         0.233561         125.681          0.64264         -152.36         0.565553        -67.1945
                        0.565553        -67.1945          0.64264         -152.36         0.233561         125.681         0.205918        -135.679
                         0.64264         -152.36         0.565553        -67.1945         0.205918        -135.679         0.233561         125.681
40.02                   0.233017         125.659         0.205574        -135.723         0.565817        -67.2406         0.642692        -152.421
                        0.205574        -135.723         0.233017         125.659         0.642692        -152.421         0.565817        -67.2406
                        0.565817        -67.2406         0.642692        -152.421         0.233017         125.659         0.205574        -135.723
                        0.642692        -152.421         0.565817        -67.2406         0.205574        -135.723         0.233017         125.659
40.03                   0.232473         125.636          0.20523        -135.767          0.56608        -67.2868         0.642745        -152.481
                         0.20523        -135.767         0.232473         125.636         0.642745        -152.481          0.56608        -67.2868
                         0.56608        -67.2868         0.642745        -152.481         0.232473         125.636          0.20523        -135.767
                        0.642745        -152.481          0.56608        -67.2868          0.20523        -135.767         0.232473         125.636
40.04                   0.231928         125.613         0.204886         -135.81         0.566342         -67.333         0.642797        -152.542
                        0.204886         -135.81         0.231928         125.613         0.642797        -152.542         0.566342         -67.333
                        0.566342         -67.333         0.642797        -152.542         0.231928         125.613         0.204886         -135.81
                        0.642797        -152.542         0.566342         -67.333         0.204886         -135.81         0.231928         125.613
40.05                   0.231384          125.59         0.204541        -135.854         0.566605        -67.3793         0.642849        -152.602
                        0.204541        -135.854         0.231384          125.59         0.642849        -152.602         0.566605        -67.3793
                        0.566605        -67.3793         0.642849        -152.602         0.231384          125.59         0.204541        -135.854
                        0.642849        -152.602         0.566605        -67.3793         0.204541        -135.854         0.231384          125.59
40.06                    0.23084         125.568         0.204195        -135.897         0.566867        -67.4256           0.6429        -152.663
                        0.204195        -135.897          0.23084         125.568           0.6429        -152.663         0.566867        -67.4256
                        0.566867        -67.4256           0.6429        -152.663          0.23084         125.568         0.204195        -135.897
                          0.6429        -152.663         0.566867        -67.4256         0.204195        -135.897          0.23084         125.568
40.07                   0.230296         125.545          0.20385         -135.94         0.567129         -67.472         0.642952        -152.723
                         0.20385         -135.94         0.230296         125.545         0.642952        -152.723         0.567129         -67.472
                        0.567129         -67.472         0.642952        -152.723         0.230296         125.545          0.20385         -135.94
                        0.642952        -152.723         0.567129         -67.472          0.20385         -135.94         0.230296         125.545
40.08                   0.229751         125.523         0.203504        -135.983          0.56739        -67.5184         0.643003        -152.784
                        0.203504        -135.983         0.229751         125.523         0.643003        -152.784          0.56739        -67.5184
                         0.56739        -67.5184         0.643003        -152.784         0.229751         125.523         0.203504        -135.983
                        0.643003        -152.784          0.56739        -67.5184         0.203504        -135.983         0.229751         125.523
40.09                   0.229207         125.501         0.203158        -136.026         0.567651        -67.5649         0.643054        -152.844
                        0.203158        -136.026         0.229207         125.501         0.643054        -152.844         0.567651        -67.5649
                        0.567651        -67.5649         0.643054        -152.844         0.229207         125.501         0.203158        -136.026
                        0.643054        -152.844         0.567651        -67.5649         0.203158        -136.026         0.229207         125.501
40.1                    0.228662         125.479         0.202811        -136.069         0.567912        -67.6114         0.643105        -152.905
                        0.202811        -136.069         0.228662         125.479         0.643105        -152.905         0.567912        -67.6114
                        0.567912        -67.6114         0.643105        -152.905         0.228662         125.479         0.202811        -136.069
                        0.643105        -152.905         0.567912        -67.6114         0.202811        -136.069         0.228662         125.479
40.11                   0.228117         125.456         0.202464        -136.111         0.568172         -67.658         0.643155        -152.965
                        0.202464        -136.111         0.228117         125.456         0.643155        -152.965         0.568172         -67.658
                        0.568172         -67.658         0.643155        -152.965         0.228117         125.456         0.202464        -136.111
                        0.643155        -152.965         0.568172         -67.658         0.202464        -136.111         0.228117         125.456
40.12                   0.227572         125.434         0.202116        -136.154         0.568432        -67.7046         0.643206        -153.026
                        0.202116        -136.154         0.227572         125.434         0.643206        -153.026         0.568432        -67.7046
                        0.568432        -67.7046         0.643206        -153.026         0.227572         125.434         0.202116        -136.154
                        0.643206        -153.026         0.568432        -67.7046         0.202116        -136.154         0.227572         125.434
40.13                   0.227028         125.413         0.201769        -136.196         0.568692        -67.7512         0.643256        -153.086
                        0.201769        -136.196         0.227028         125.413         0.643256        -153.086         0.568692        -67.7512
                        0.568692        -67.7512         0.643256        -153.086         0.227028         125.413         0.201769        -136.196
                        0.643256        -153.086         0.568692        -67.7512         0.201769        -136.196         0.227028         125.413
40.14                   0.226483         125.391          0.20142        -136.239         0.568951        -67.7979         0.643306        -153.147
                         0.20142        -136.239         0.226483         125.391         0.643306        -153.147         0.568951        -67.7979
                        0.568951        -67.7979         0.643306        -153.147         0.226483         125.391          0.20142        -136.239
                        0.643306        -153.147         0.568951        -67.7979          0.20142        -136.239         0.226483         125.391
40.15                   0.225938         125.369         0.201072        -136.281          0.56921        -67.8447         0.643355        -153.207
                        0.201072        -136.281         0.225938         125.369         0.643355        -153.207          0.56921        -67.8447
                         0.56921        -67.8447         0.643355        -153.207         0.225938         125.369         0.201072        -136.281
                        0.643355        -153.207          0.56921        -67.8447         0.201072        -136.281         0.225938         125.369
40.16                   0.225393         125.347         0.200723        -136.323         0.569469        -67.8915         0.643405        -153.268
                        0.200723        -136.323         0.225393         125.347         0.643405        -153.268         0.569469        -67.8915
                        0.569469        -67.8915         0.643405        -153.268         0.225393         125.347         0.200723        -136.323
                        0.643405        -153.268         0.569469        -67.8915         0.200723        -136.323         0.225393         125.347
40.17                   0.224847         125.326         0.200374        -136.364         0.569727        -67.9384         0.643454        -153.328
                        0.200374        -136.364         0.224847         125.326         0.643454        -153.328         0.569727        -67.9384
                        0.569727        -67.9384         0.643454        -153.328         0.224847         125.326         0.200374        -136.364
                        0.643454        -153.328         0.569727        -67.9384         0.200374        -136.364         0.224847         125.326
40.18                   0.224302         125.304         0.200024        -136.406         0.569985        -67.9852         0.643503        -153.389
                        0.200024        -136.406         0.224302         125.304         0.643503        -153.389         0.569985        -67.9852
                        0.569985        -67.9852         0.643503        -153.389         0.224302         125.304         0.200024        -136.406
                        0.643503        -153.389         0.569985        -67.9852         0.200024        -136.406         0.224302         125.304
40.19                   0.223757         125.283         0.199675        -136.448         0.570243        -68.0322         0.643552         -153.45
                        0.199675        -136.448         0.223757         125.283         0.643552         -153.45         0.570243        -68.0322
                        0.570243        -68.0322         0.643552         -153.45         0.223757         125.283         0.199675        -136.448
                        0.643552         -153.45         0.570243        -68.0322         0.199675        -136.448         0.223757         125.283
40.2                    0.223212         125.262         0.199324        -136.489           0.5705        -68.0792         0.643601         -153.51
                        0.199324        -136.489         0.223212         125.262         0.643601         -153.51           0.5705        -68.0792
                          0.5705        -68.0792         0.643601         -153.51         0.223212         125.262         0.199324        -136.489
                        0.643601         -153.51           0.5705        -68.0792         0.199324        -136.489         0.223212         125.262
40.21                   0.222666         125.241         0.198974         -136.53         0.570757        -68.1262          0.64365        -153.571
                        0.198974         -136.53         0.222666         125.241          0.64365        -153.571         0.570757        -68.1262
                        0.570757        -68.1262          0.64365        -153.571         0.222666         125.241         0.198974         -136.53
                         0.64365        -153.571         0.570757        -68.1262         0.198974         -136.53         0.222666         125.241
40.22                   0.222121          125.22         0.198623        -136.572         0.571013        -68.1733         0.643698        -153.631
                        0.198623        -136.572         0.222121          125.22         0.643698        -153.631         0.571013        -68.1733
                        0.571013        -68.1733         0.643698        -153.631         0.222121          125.22         0.198623        -136.572
                        0.643698        -153.631         0.571013        -68.1733         0.198623        -136.572         0.222121          125.22
40.23                   0.221575         125.199         0.198272        -136.613          0.57127        -68.2204         0.643746        -153.692
                        0.198272        -136.613         0.221575         125.199         0.643746        -153.692          0.57127        -68.2204
                         0.57127        -68.2204         0.643746        -153.692         0.221575         125.199         0.198272        -136.613
                        0.643746        -153.692          0.57127        -68.2204         0.198272        -136.613         0.221575         125.199
40.24                   0.221029         125.178          0.19792        -136.653         0.571525        -68.2676         0.643794        -153.753
                         0.19792        -136.653         0.221029         125.178         0.643794        -153.753         0.571525        -68.2676
                        0.571525        -68.2676         0.643794        -153.753         0.221029         125.178          0.19792        -136.653
                        0.643794        -153.753         0.571525        -68.2676          0.19792        -136.653         0.221029         125.178
40.25                   0.220484         125.157         0.197568        -136.694         0.571781        -68.3148         0.643841        -153.813
                        0.197568        -136.694         0.220484         125.157         0.643841        -153.813         0.571781        -68.3148
                        0.571781        -68.3148         0.643841        -153.813         0.220484         125.157         0.197568        -136.694
                        0.643841        -153.813         0.571781        -68.3148         0.197568        -136.694         0.220484         125.157
40.26                   0.219938         125.136         0.197216        -136.735         0.572036        -68.3621         0.643889        -153.874
                        0.197216        -136.735         0.219938         125.136         0.643889        -153.874         0.572036        -68.3621
                        0.572036        -68.3621         0.643889        -153.874         0.219938         125.136         0.197216        -136.735
                        0.643889        -153.874         0.572036        -68.3621         0.197216        -136.735         0.219938         125.136
40.27                   0.219392         125.116         0.196863        -136.775         0.572291        -68.4094         0.643936        -153.934
                        0.196863        -136.775         0.219392         125.116         0.643936        -153.934         0.572291        -68.4094
                        0.572291        -68.4094         0.643936        -153.934         0.219392         125.116         0.196863        -136.775
                        0.643936        -153.934         0.572291        -68.4094         0.196863        -136.775         0.219392         125.116
40.28                   0.218846         125.095          0.19651        -136.815         0.572545        -68.4568         0.643983        -153.995
                         0.19651        -136.815         0.218846         125.095         0.643983        -153.995         0.572545        -68.4568
                        0.572545        -68.4568         0.643983        -153.995         0.218846         125.095          0.19651        -136.815
                        0.643983        -153.995         0.572545        -68.4568          0.19651        -136.815         0.218846         125.095
40.29                     0.2183         125.075         0.196157        -136.855         0.572799        -68.5042          0.64403        -154.056
                        0.196157        -136.855           0.2183         125.075          0.64403        -154.056         0.572799        -68.5042
                        0.572799        -68.5042          0.64403        -154.056           0.2183         125.075         0.196157        -136.855
                         0.64403        -154.056         0.572799        -68.5042         0.196157        -136.855           0.2183         125.075
40.3                    0.217754         125.055         0.195803        -136.895         0.573053        -68.5516         0.644077        -154.116
                        0.195803        -136.895         0.217754         125.055         0.644077        -154.116         0.573053        -68.5516
                        0.573053        -68.5516         0.644077        -154.116         0.217754         125.055         0.195803        -136.895
                        0.644077        -154.116         0.573053        -68.5516         0.195803        -136.895         0.217754         125.055
40.31                   0.217208         125.035          0.19545        -136.935         0.573306        -68.5991         0.644123        -154.177
                         0.19545        -136.935         0.217208         125.035         0.644123        -154.177         0.573306        -68.5991
                        0.573306        -68.5991         0.644123        -154.177         0.217208         125.035          0.19545        -136.935
                        0.644123        -154.177         0.573306        -68.5991          0.19545        -136.935         0.217208         125.035
40.32                   0.216662         125.015         0.195095        -136.975         0.573559        -68.6467         0.644169        -154.238
                        0.195095        -136.975         0.216662         125.015         0.644169        -154.238         0.573559        -68.6467
                        0.573559        -68.6467         0.644169        -154.238         0.216662         125.015         0.195095        -136.975
                        0.644169        -154.238         0.573559        -68.6467         0.195095        -136.975         0.216662         125.015
40.33                   0.216116         124.995         0.194741        -137.014         0.573812        -68.6942         0.644215        -154.298
                        0.194741        -137.014         0.216116         124.995         0.644215        -154.298         0.573812        -68.6942
                        0.573812        -68.6942         0.644215        -154.298         0.216116         124.995         0.194741        -137.014
                        0.644215        -154.298         0.573812        -68.6942         0.194741        -137.014         0.216116         124.995
40.34                    0.21557         124.975         0.194386        -137.054         0.574064        -68.7419         0.644261        -154.359
                        0.194386        -137.054          0.21557         124.975         0.644261        -154.359         0.574064        -68.7419
                        0.574064        -68.7419         0.644261        -154.359          0.21557         124.975         0.194386        -137.054
                        0.644261        -154.359         0.574064        -68.7419         0.194386        -137.054          0.21557         124.975
40.35                   0.215023         124.955          0.19403        -137.093         0.574315        -68.7895         0.644307         -154.42
                         0.19403        -137.093         0.215023         124.955         0.644307         -154.42         0.574315        -68.7895
                        0.574315        -68.7895         0.644307         -154.42         0.215023         124.955          0.19403        -137.093
                        0.644307         -154.42         0.574315        -68.7895          0.19403        -137.093         0.215023         124.955
40.36                   0.214477         124.936         0.193675        -137.132         0.574567        -68.8373         0.644352         -154.48
                        0.193675        -137.132         0.214477         124.936         0.644352         -154.48         0.574567        -68.8373
                        0.574567        -68.8373         0.644352         -154.48         0.214477         124.936         0.193675        -137.132
                        0.644352         -154.48         0.574567        -68.8373         0.193675        -137.132         0.214477         124.936
40.37                   0.213931         124.916         0.193319        -137.171         0.574818         -68.885         0.644397        -154.541
                        0.193319        -137.171         0.213931         124.916         0.644397        -154.541         0.574818         -68.885
                        0.574818         -68.885         0.644397        -154.541         0.213931         124.916         0.193319        -137.171
                        0.644397        -154.541         0.574818         -68.885         0.193319        -137.171         0.213931         124.916
40.38                   0.213384         124.897         0.192963        -137.209         0.575069        -68.9328         0.644442        -154.602
                        0.192963        -137.209         0.213384         124.897         0.644442        -154.602         0.575069        -68.9328
                        0.575069        -68.9328         0.644442        -154.602         0.213384         124.897         0.192963        -137.209
                        0.644442        -154.602         0.575069        -68.9328         0.192963        -137.209         0.213384         124.897
40.39                   0.212838         124.877         0.192606        -137.248         0.575319        -68.9807         0.644487        -154.663
                        0.192606        -137.248         0.212838         124.877         0.644487        -154.663         0.575319        -68.9807
                        0.575319        -68.9807         0.644487        -154.663         0.212838         124.877         0.192606        -137.248
                        0.644487        -154.663         0.575319        -68.9807         0.192606        -137.248         0.212838         124.877
40.4                    0.212291         124.858         0.192249        -137.286         0.575569        -69.0286         0.644532        -154.723
                        0.192249        -137.286         0.212291         124.858         0.644532        -154.723         0.575569        -69.0286
                        0.575569        -69.0286         0.644532        -154.723         0.212291         124.858         0.192249        -137.286
                        0.644532        -154.723         0.575569        -69.0286         0.192249        -137.286         0.212291         124.858
40.41                   0.211745         124.839         0.191892        -137.324         0.575818        -69.0765         0.644576        -154.784
                        0.191892        -137.324         0.211745         124.839         0.644576        -154.784         0.575818        -69.0765
                        0.575818        -69.0765         0.644576        -154.784         0.211745         124.839         0.191892        -137.324
                        0.644576        -154.784         0.575818        -69.0765         0.191892        -137.324         0.211745         124.839
40.42                   0.211198          124.82         0.191535        -137.362         0.576067        -69.1245          0.64462        -154.845
                        0.191535        -137.362         0.211198          124.82          0.64462        -154.845         0.576067        -69.1245
                        0.576067        -69.1245          0.64462        -154.845         0.211198          124.82         0.191535        -137.362
                         0.64462        -154.845         0.576067        -69.1245         0.191535        -137.362         0.211198          124.82
40.43                   0.210651         124.801         0.191177          -137.4         0.576316        -69.1726         0.644664        -154.905
                        0.191177          -137.4         0.210651         124.801         0.644664        -154.905         0.576316        -69.1726
                        0.576316        -69.1726         0.644664        -154.905         0.210651         124.801         0.191177          -137.4
                        0.644664        -154.905         0.576316        -69.1726         0.191177          -137.4         0.210651         124.801
40.44                   0.210104         124.783         0.190819        -137.438         0.576565        -69.2206         0.644708        -154.966
                        0.190819        -137.438         0.210104         124.783         0.644708        -154.966         0.576565        -69.2206
                        0.576565        -69.2206         0.644708        -154.966         0.210104         124.783         0.190819        -137.438
                        0.644708        -154.966         0.576565        -69.2206         0.190819        -137.438         0.210104         124.783
40.45                   0.209558         124.764          0.19046        -137.476         0.576813        -69.2687         0.644752        -155.027
                         0.19046        -137.476         0.209558         124.764         0.644752        -155.027         0.576813        -69.2687
                        0.576813        -69.2687         0.644752        -155.027         0.209558         124.764          0.19046        -137.476
                        0.644752        -155.027         0.576813        -69.2687          0.19046        -137.476         0.209558         124.764
40.46                   0.209011         124.746         0.190102        -137.513          0.57706        -69.3169         0.644795        -155.088
                        0.190102        -137.513         0.209011         124.746         0.644795        -155.088          0.57706        -69.3169
                         0.57706        -69.3169         0.644795        -155.088         0.209011         124.746         0.190102        -137.513
                        0.644795        -155.088          0.57706        -69.3169         0.190102        -137.513         0.209011         124.746
40.47                   0.208464         124.727         0.189742         -137.55         0.577307        -69.3651         0.644838        -155.148
                        0.189742         -137.55         0.208464         124.727         0.644838        -155.148         0.577307        -69.3651
                        0.577307        -69.3651         0.644838        -155.148         0.208464         124.727         0.189742         -137.55
                        0.644838        -155.148         0.577307        -69.3651         0.189742         -137.55         0.208464         124.727
40.48                   0.207917         124.709         0.189383        -137.587         0.577554        -69.4134         0.644881        -155.209
                        0.189383        -137.587         0.207917         124.709         0.644881        -155.209         0.577554        -69.4134
                        0.577554        -69.4134         0.644881        -155.209         0.207917         124.709         0.189383        -137.587
                        0.644881        -155.209         0.577554        -69.4134         0.189383        -137.587         0.207917         124.709
40.49                    0.20737         124.691         0.189023        -137.624         0.577801        -69.4616         0.644924         -155.27
                        0.189023        -137.624          0.20737         124.691         0.644924         -155.27         0.577801        -69.4616